<UPF version="2.0.1">
  <PP_INFO>
    from vwr To fhi To upf
    Author: unknown
    Generation date: unknown
    Pseudopotential type: NC
    Element: Si
    Functional: LDA

    Suggested minimum cutoff for wavefunctions:  30. Ry
    Suggested minimum cutoff for charge density:   0. Ry
    The Pseudo was generated with a Non-Relativistic Calculation
    L component and cutoff radius for Local Potential:  0   0.0000

    Valence configuration: 
    nl pn  l   occ       Rcut    Rcut US       E pseu
    3s  3  0  2.00      0.000      0.000     0.000000
    3p  3  1  2.00      0.000      0.000     0.000000
    3d  3  2  0.00      0.000      0.000     0.000000
    Comment:
    Info: automatically convert from VWR format
  </PP_INFO>
  <!--                               -->
  <!-- END OF HUMAN READABLE SECTION -->
  <!--                               -->
  <PP_HEADER generated="from vwr To fhi To upf"
             author="unknown"
             date="unknown"
             comment="Info: automatically convert from VWR format"
             element="Si"
             pseudo_type="NC"
             relativistic="nonrel"
             is_ultrasoft="F"
             is_paw="F"
             is_coulomb="F"
             has_so="F"
             has_wfc="F"
             has_gipaw="F"
             paw_as_gipaw="F"
             core_correction="F"
             functional="LDA"
             z_valence="4.000000000000000E+000"
             total_psenergy="0.000000000000000E+000"
             wfc_cutoff="3.000000000000000E+001"
             rho_cutoff="0.000000000000000E+000"
             l_max="2"
             l_max_rho="0"
             l_local="0"
             mesh_size="1074"
             number_of_wfc="3"
             number_of_proj="2"/>
  <PP_MESH dx="2.439993131034235E-002" mesh="1074" xmin="-1.037577013502425E+001" rmax="1.198140800000000E+002"
zmesh="1.400000000000000E+001">
    <PP_R type="real" size="1074" columns="4">
 2.227061700000000E-006  4.482136400000000E-006  6.765576500000000E-006  9.077738700000000E-006 
 1.141898400000000E-005  1.378967900000000E-005  1.619019400000000E-005  1.862090300000000E-005 
 2.108218700000000E-005  2.357443000000000E-005  2.609802100000000E-005  2.865335600000000E-005 
 3.124083200000000E-005  3.386085500000000E-005  3.651383400000000E-005  3.920018300000000E-005 
 4.192032300000000E-005  4.467467700000000E-005  4.746367700000000E-005  5.028775900000000E-005 
 5.314736200000000E-005  5.604293600000000E-005  5.897493100000000E-005  6.194380600000000E-005 
 6.495002500000000E-005  6.799405700000000E-005  7.107637900000000E-005  7.419747100000000E-005 
 7.735782199999999E-005  8.055792599999999E-005  8.379828100000000E-005  8.707939600000000E-005 
 9.040178100000000E-005  9.376595800000000E-005  9.717245000000000E-005  1.006217900000000E-004 
 1.041145200000000E-004  1.076511800000000E-004  1.112323300000000E-004  1.148585200000000E-004 
 1.185303200000000E-004  1.222483100000000E-004  1.260130700000000E-004  1.298251800000000E-004 
 1.336852400000000E-004  1.375938600000000E-004  1.415516400000000E-004  1.455592000000000E-004 
 1.496171700000000E-004  1.537261800000000E-004  1.578868800000000E-004  1.620999200000000E-004 
 1.663659400000000E-004  1.706856300000000E-004  1.750596500000000E-004  1.794887000000000E-004 
 1.839734500000000E-004  1.885146100000000E-004  1.931128900000000E-004  1.977690200000000E-004 
 2.024837100000000E-004  2.072577000000000E-004  2.120917400000000E-004  2.169865900000000E-004 
 2.219430100000000E-004  2.269617700000000E-004  2.320436600000000E-004  2.371894700000000E-004 
 2.424000100000000E-004  2.476760800000000E-004  2.530185300000000E-004  2.584281700000000E-004 
 2.639058600000000E-004  2.694524500000000E-004  2.750688000000000E-004  2.807558000000000E-004 
 2.865143400000000E-004  2.923453100000000E-004  2.982496200000000E-004  3.042282000000000E-004 
 3.102819800000000E-004  3.164119100000000E-004  3.226189500000000E-004  3.289040500000000E-004 
 3.352682200000000E-004  3.417124400000000E-004  3.482377100000000E-004  3.548450600000000E-004 
 3.615355300000000E-004  3.683101500000000E-004  3.751699800000000E-004  3.821161000000000E-004 
 3.891495900000000E-004  3.962715500000000E-004  4.034830900000000E-004  4.107853500000000E-004 
 4.181794500000000E-004  4.256665700000000E-004  4.332478500000000E-004  4.409245000000000E-004 
 4.486977100000000E-004  4.565687000000000E-004  4.645386800000000E-004  4.726089200000000E-004 
 4.807806700000000E-004  4.890552100000000E-004  4.974338300000000E-004  5.059178400000000E-004 
 5.145085600000000E-004  5.232073500000000E-004  5.320155500000000E-004  5.409345400000000E-004 
 5.499657200000000E-004  5.591105000000000E-004  5.683703100000000E-004  5.777465900000000E-004 
 5.872408100000000E-004  5.968544500000000E-004  6.065890100000000E-004  6.164460300000000E-004 
 6.264270200000000E-004  6.365335700000000E-004  6.467672400000000E-004  6.571296300000000E-004 
 6.676223600000000E-004  6.782470800000000E-004  6.890054400000000E-004  6.998991200000000E-004 
 7.109298299999999E-004  7.220992900000000E-004  7.334092400000000E-004  7.448614600000000E-004 
 7.564577200000000E-004  7.681998500000000E-004  7.800896800000000E-004  7.921290600000000E-004 
 8.043198800000000E-004  8.166640400000000E-004  8.291634700000000E-004  8.418201200000000E-004 
 8.546359800000000E-004  8.676130400000000E-004  8.807533300000001E-004  8.940589000000000E-004 
 9.075318400000001E-004  9.211742499999999E-004  9.349882600000000E-004  9.489760199999999E-004 
 9.631397300000000E-004  9.774816000000001E-004  9.920038700000000E-004  1.006708800000000E-003 
 1.021598700000000E-003  1.036675900000000E-003  1.051942700000000E-003  1.067401600000000E-003 
 1.083054900000000E-003  1.098905100000000E-003  1.114954700000000E-003  1.131206200000000E-003 
 1.147662100000000E-003  1.164325000000000E-003  1.181197400000000E-003  1.198282100000000E-003 
 1.215581700000000E-003  1.233098900000000E-003  1.250836400000000E-003  1.268797100000000E-003 
 1.286983700000000E-003  1.305399000000000E-003  1.324045900000000E-003  1.342927400000000E-003 
 1.362046500000000E-003  1.381406000000000E-003  1.401009000000000E-003  1.420858500000000E-003 
 1.440957800000000E-003  1.461309900000000E-003  1.481918000000000E-003  1.502785300000000E-003 
 1.523915000000000E-003  1.545310600000000E-003  1.566975300000000E-003  1.588912400000000E-003 
 1.611125600000000E-003  1.633618100000000E-003  1.656393500000000E-003  1.679455500000000E-003 
 1.702807500000000E-003  1.726453200000000E-003  1.750396400000000E-003  1.774640700000000E-003 
 1.799190000000000E-003  1.824048100000000E-003  1.849218900000000E-003  1.874706200000000E-003 
 1.900514200000000E-003  1.926646800000000E-003  1.953108100000000E-003  1.979902200000000E-003 
 2.007033400000000E-003  2.034505800000000E-003  2.062323800000000E-003  2.090491700000000E-003 
 2.119013900000000E-003  2.147894900000000E-003  2.177139200000000E-003  2.206751300000000E-003 
 2.236735800000000E-003  2.267097600000000E-003  2.297841200000000E-003  2.328971600000000E-003 
 2.360493500000000E-003  2.392411900000000E-003  2.424731800000000E-003  2.457458200000000E-003 
 2.490596300000000E-003  2.524151200000000E-003  2.558128200000000E-003  2.592532500000000E-003 
 2.627369700000000E-003  2.662645000000000E-003  2.698364000000000E-003  2.734532300000000E-003 
 2.771155500000000E-003  2.808239400000000E-003  2.845789800000000E-003  2.883812500000000E-003 
 2.922313400000000E-003  2.961298700000000E-003  3.000774300000000E-003  3.040746400000000E-003 
 3.081221400000000E-003  3.122205400000000E-003  3.163705000000000E-003  3.205726600000000E-003 
 3.248276700000000E-003  3.291362100000000E-003  3.334989400000000E-003  3.379165400000000E-003 
 3.423897200000000E-003  3.469191600000000E-003  3.515055700000000E-003  3.561496700000000E-003 
 3.608521900000000E-003  3.656138600000000E-003  3.704354200000000E-003  3.753176300000000E-003 
 3.802612500000000E-003  3.852670500000000E-003  3.903358200000000E-003  3.954683500000000E-003 
 4.006654300000000E-003  4.059278900000000E-003  4.112565400000000E-003  4.166522200000000E-003 
 4.221157600000000E-003  4.276480300000000E-003  4.332498900000000E-003  4.389222100000000E-003 
 4.446658800000000E-003  4.504817900000000E-003  4.563708600000000E-003  4.623340000000000E-003 
 4.683721600000000E-003  4.744862600000000E-003  4.806772700000000E-003  4.869461500000000E-003 
 4.932938800000000E-003  4.997214600000000E-003  5.062298900000000E-003  5.128201900000000E-003 
 5.194933800000000E-003  5.262505000000000E-003  5.330926300000000E-003  5.400208100000000E-003 
 5.470361400000000E-003  5.541397200000000E-003  5.613326400000000E-003  5.686160500000000E-003 
 5.759910600000000E-003  5.834588400000000E-003  5.910205600000000E-003  5.986773900000000E-003 
 6.064305300000000E-003  6.142811900000000E-003  6.222306000000000E-003  6.302800100000000E-003 
 6.384306600000000E-003  6.466838400000000E-003  6.550408200000000E-003  6.635029300000000E-003 
 6.720714700000000E-003  6.807478000000000E-003  6.895332600000000E-003  6.984292300000000E-003 
 7.074370900000000E-003  7.165582600000000E-003  7.257941600000000E-003  7.351462300000000E-003 
 7.446159400000000E-003  7.542047600000000E-003  7.639141900000000E-003  7.737457600000000E-003 
 7.837009900000001E-003  7.937814400000000E-003  8.039886899999999E-003  8.143243300000000E-003 
 8.247899700000000E-003  8.353872599999999E-003  8.461178400000000E-003  8.569834000000000E-003 
 8.679856300000000E-003  8.791262500000001E-003  8.904070100000000E-003  9.018296500000000E-003 
 9.133959800000001E-003  9.251077900000000E-003  9.369669200000000E-003  9.489752200000000E-003 
 9.611345699999999E-003  9.734468600000001E-003  9.859140200000000E-003  9.985380000000000E-003 
 1.011320800000000E-002  1.024264300000000E-002  1.037370700000000E-002  1.050641900000000E-002 
 1.064080100000000E-002  1.077687200000000E-002  1.091465600000000E-002  1.105417200000000E-002 
 1.119544400000000E-002  1.133849200000000E-002  1.148334000000000E-002  1.163001000000000E-002 
 1.177852400000000E-002  1.192890700000000E-002  1.208118100000000E-002  1.223537100000000E-002 
 1.239150000000000E-002  1.254959300000000E-002  1.270967400000000E-002  1.287176900000000E-002 
 1.303590300000000E-002  1.320210200000000E-002  1.337039100000000E-002  1.354079700000000E-002 
 1.371334600000000E-002  1.388806600000000E-002  1.406498300000000E-002  1.424412600000000E-002 
 1.442552200000000E-002  1.460920000000000E-002  1.479518800000000E-002  1.498351600000000E-002 
 1.517421200000000E-002  1.536730700000000E-002  1.556283100000000E-002  1.576081500000000E-002 
 1.596128900000000E-002  1.616428400000000E-002  1.636983300000000E-002  1.657796700000000E-002 
 1.678871900000000E-002  1.700212200000000E-002  1.721821000000000E-002  1.743701500000000E-002 
 1.765857300000000E-002  1.788291700000000E-002  1.811008400000000E-002  1.834010800000000E-002 
 1.857302500000000E-002  1.880887200000000E-002  1.904768500000000E-002  1.928950300000000E-002 
 1.953436200000000E-002  1.978230100000000E-002  2.003335900000000E-002  2.028757500000000E-002 
 2.054498800000000E-002  2.080563900000000E-002  2.106956900000000E-002  2.133681900000000E-002 
 2.160743000000000E-002  2.188144500000000E-002  2.215890700000000E-002  2.243985800000000E-002 
 2.272434400000000E-002  2.301240800000000E-002  2.330409600000000E-002  2.359945200000000E-002 
 2.389852400000000E-002  2.420135700000000E-002  2.450800000000000E-002  2.481850000000000E-002 
 2.513290500000000E-002  2.545126500000000E-002  2.577363000000000E-002  2.610004900000000E-002 
 2.643057400000000E-002  2.676525700000000E-002  2.710415000000000E-002  2.744730500000000E-002 
 2.779477700000000E-002  2.814661900000000E-002  2.850288700000000E-002  2.886363600000000E-002 
 2.922892300000000E-002  2.959880500000000E-002  2.997333900000000E-002  3.035258400000000E-002 
 3.073660000000000E-002  3.112544600000000E-002  3.151918300000000E-002  3.191787200000000E-002 
 3.232157700000000E-002  3.273035900000000E-002  3.314428400000000E-002  3.356341400000000E-002 
 3.398781700000000E-002  3.441755800000000E-002  3.485270500000000E-002  3.529332500000000E-002 
 3.573948800000000E-002  3.619126200000000E-002  3.664871900000000E-002  3.711193000000000E-002 
 3.758096800000000E-002  3.805590500000000E-002  3.853681700000000E-002  3.902377700000000E-002 
 3.951686300000000E-002  4.001615100000000E-002  4.052171900000000E-002  4.103364700000000E-002 
 4.155201400000000E-002  4.207690100000000E-002  4.260839000000000E-002  4.314656500000000E-002 
 4.369150900000000E-002  4.424330700000000E-002  4.480204700000000E-002  4.536781400000000E-002 
 4.594069800000000E-002  4.652078800000000E-002  4.710817500000000E-002  4.770295000000000E-002 
 4.830520600000000E-002  4.891503800000000E-002  4.953254000000000E-002  5.015781000000000E-002 
 5.079094400000000E-002  5.143204300000000E-002  5.208120500000000E-002  5.273853300000000E-002 
 5.340413000000000E-002  5.407809800000000E-002  5.476054400000000E-002  5.545157400000000E-002 
 5.615129600000000E-002  5.685981900000000E-002  5.757725500000000E-002  5.830371400000000E-002 
 5.903931200000000E-002  5.978416200000000E-002  6.053838100000000E-002  6.130208700000000E-002 
 6.207540000000000E-002  6.285843900000000E-002  6.365132799999999E-002  6.445418999999999E-002 
 6.526715100000000E-002  6.609033800000000E-002  6.692387900000001E-002  6.776790500000000E-002 
 6.862254800000001E-002  6.948794000000000E-002  7.036421800000001E-002  7.125151800000000E-002 
 7.214997900000000E-002  7.305974100000000E-002  7.398094600000001E-002  7.491373899999999E-002 
 7.585826499999999E-002  7.681467100000000E-002  7.778310800000000E-002  7.876372600000001E-002 
 7.975667900000000E-002  8.076212100000001E-002  8.178021100000001E-002  8.281110600000000E-002 
 8.385496900000000E-002  8.491196199999999E-002  8.598225000000000E-002  8.706600000000000E-002 
 8.816338300000000E-002  8.927456900000000E-002  9.039973200000000E-002  9.153904700000000E-002 
 9.269269400000001E-002  9.386085199999999E-002  9.504370299999999E-002  9.624143300000000E-002 
 9.745422800000000E-002  9.868227800000000E-002  9.992577499999999E-002  1.011849100000000E-001 
 1.024598900000000E-001  1.037509000000000E-001  1.050581600000000E-001  1.063818500000000E-001 
 1.077222000000000E-001  1.090794000000000E-001  1.104536800000000E-001  1.118452500000000E-001 
 1.132543100000000E-001  1.146811000000000E-001  1.161258400000000E-001  1.175887500000000E-001 
 1.190700600000000E-001  1.205700100000000E-001  1.220888200000000E-001  1.236267300000000E-001 
 1.251839900000000E-001  1.267608400000000E-001  1.283575200000000E-001  1.299742900000000E-001 
 1.316113900000000E-001  1.332690900000000E-001  1.349476300000000E-001  1.366472900000000E-001 
 1.383683300000000E-001  1.401110200000000E-001  1.418756200000000E-001  1.436624300000000E-001 
 1.454717000000000E-001  1.473037400000000E-001  1.491588200000000E-001  1.510372300000000E-001 
 1.529392700000000E-001  1.548652400000000E-001  1.568154300000000E-001  1.587901600000000E-001 
 1.607897200000000E-001  1.628144300000000E-001  1.648646100000000E-001  1.669405800000000E-001 
 1.690426600000000E-001  1.711711800000000E-001  1.733264800000000E-001  1.755088800000000E-001 
 1.777187400000000E-001  1.799563900000000E-001  1.822221900000000E-001  1.845164900000000E-001 
 1.868396500000000E-001  1.891920300000000E-001  1.915740000000000E-001  1.939859300000000E-001 
 1.964282000000000E-001  1.989011900000000E-001  2.014052900000000E-001  2.039408800000000E-001 
 2.065083700000000E-001  2.091081500000000E-001  2.117406400000000E-001  2.144062300000000E-001 
 2.171053600000000E-001  2.198384400000000E-001  2.226058900000000E-001  2.254081500000000E-001 
 2.282456700000000E-001  2.311188700000000E-001  2.340282200000000E-001  2.369741600000000E-001 
 2.399571500000000E-001  2.429776700000000E-001  2.460361800000000E-001  2.491331600000000E-001 
 2.522690900000000E-001  2.554444800000000E-001  2.586598000000000E-001  2.619155700000000E-001 
 2.652122800000000E-001  2.685504700000000E-001  2.719306500000000E-001  2.753533400000000E-001 
 2.788190900000000E-001  2.823284300000000E-001  2.858819100000000E-001  2.894800900000000E-001 
 2.931235300000000E-001  2.968127900000000E-001  3.005484600000000E-001  3.043311300000000E-001 
 3.081613700000000E-001  3.120397900000000E-001  3.159669900000000E-001  3.199435900000000E-001 
 3.239702200000000E-001  3.280474900000000E-001  3.321760400000000E-001  3.363565300000000E-001 
 3.405896000000000E-001  3.448759200000000E-001  3.492161500000000E-001  3.536109800000000E-001 
 3.580610800000000E-001  3.625671600000000E-001  3.671299200000000E-001  3.717500800000000E-001 
 3.764283400000000E-001  3.811654600000000E-001  3.859621600000000E-001  3.908191900000000E-001 
 3.957373200000000E-001  4.007173100000000E-001  4.057599400000000E-001  4.108659900000000E-001 
 4.160362800000000E-001  4.212716000000000E-001  4.265727700000000E-001  4.319406200000000E-001 
 4.373759900000000E-001  4.428797300000000E-001  4.484527000000000E-001  4.540957700000000E-001 
 4.598098200000000E-001  4.655957400000000E-001  4.714544400000000E-001  4.773868400000000E-001 
 4.833938500000000E-001  4.894764200000000E-001  4.956355000000000E-001  5.018720600000000E-001 
 5.081870600000000E-001  5.145814900000000E-001  5.210563600000000E-001  5.276126700000000E-001 
 5.342514500000000E-001  5.409737300000000E-001  5.477805700000000E-001  5.546730300000000E-001 
 5.616521799999999E-001  5.687191200000000E-001  5.758749500000000E-001  5.831208000000000E-001 
 5.904577800000000E-001  5.978870500000000E-001  6.054097700000000E-001  6.130271200000000E-001 
 6.207402800000000E-001  6.285504600000000E-001  6.364588700000000E-001  6.444667700000000E-001 
 6.525753900000000E-001  6.607860000000000E-001  6.690999000000000E-001  6.775183600000000E-001 
 6.860427200000000E-001  6.946743000000000E-001  7.034144600000000E-001  7.122645500000000E-001 
 7.212259600000001E-001  7.303001000000000E-001  7.394883700000000E-001  7.487922100000000E-001 
 7.582130900000000E-001  7.677524600000000E-001  7.774118200000000E-001  7.871926900000000E-001 
 7.970965800000001E-001  8.071250500000000E-001  8.172796600000000E-001  8.275620000000000E-001 
 8.379736700000000E-001  8.485163100000001E-001  8.591915600000000E-001  8.700010900000000E-001 
 8.809465800000000E-001  8.920297500000000E-001  9.032523300000000E-001  9.146160700000000E-001 
 9.261227500000000E-001  9.377741700000000E-001  9.495721499999999E-001  9.615185200000000E-001 
 9.736151600000000E-001  9.858639600000000E-001  9.982668300000000E-001  1.010825700000000E+000 
 1.023542600000000E+000  1.036419400000000E+000  1.049458100000000E+000  1.062660900000000E+000 
 1.076029800000000E+000  1.089566800000000E+000  1.103274100000000E+000  1.117153800000000E+000 
 1.131208100000000E+000  1.145439200000000E+000  1.159849200000000E+000  1.174440600000000E+000 
 1.189215400000000E+000  1.204176200000000E+000  1.219325100000000E+000  1.234664500000000E+000 
 1.250196900000000E+000  1.265924700000000E+000  1.281850300000000E+000  1.297976200000000E+000 
 1.314304900000000E+000  1.330839100000000E+000  1.347581200000000E+000  1.364533900000000E+000 
 1.381699900000000E+000  1.399081700000000E+000  1.416682300000000E+000  1.434504200000000E+000 
 1.452550200000000E+000  1.470823300000000E+000  1.489326200000000E+000  1.508061800000000E+000 
 1.527033100000000E+000  1.546243100000000E+000  1.565694700000000E+000  1.585390900000000E+000 
 1.605334900000000E+000  1.625529700000000E+000  1.645978600000000E+000  1.666684700000000E+000 
 1.687651200000000E+000  1.708881500000000E+000  1.730378800000000E+000  1.752146500000000E+000 
 1.774188000000000E+000  1.796506800000000E+000  1.819106300000000E+000  1.841990100000000E+000 
 1.865161700000000E+000  1.888624800000000E+000  1.912383000000000E+000  1.936440000000000E+000 
 1.960799700000000E+000  1.985465700000000E+000  2.010442000000000E+000  2.035732500000000E+000 
 2.061341100000000E+000  2.087271800000000E+000  2.113528700000000E+000  2.140115800000000E+000 
 2.167037400000000E+000  2.194297600000000E+000  2.221900700000000E+000  2.249851000000000E+000 
 2.278152800000000E+000  2.306810700000000E+000  2.335829000000000E+000  2.365212400000000E+000 
 2.394965300000000E+000  2.425092500000000E+000  2.455598600000000E+000  2.486488500000000E+000 
 2.517766900000000E+000  2.549438700000000E+000  2.581508900000000E+000  2.613982500000000E+000 
 2.646864600000000E+000  2.680160300000000E+000  2.713874800000000E+000  2.748013400000000E+000 
 2.782581400000000E+000  2.817584200000000E+000  2.853027200000000E+000  2.888916100000000E+000 
 2.925256400000000E+000  2.962053900000000E+000  2.999314100000000E+000  3.037043100000000E+000 
 3.075246600000000E+000  3.113930700000000E+000  3.153101300000000E+000  3.192764700000000E+000 
 3.232927000000000E+000  3.273594400000000E+000  3.314773400000000E+000  3.356470300000000E+000 
 3.398691700000000E+000  3.441444300000000E+000  3.484734500000000E+000  3.528569300000000E+000 
 3.572955500000000E+000  3.617900000000000E+000  3.663409800000000E+000  3.709492000000000E+000 
 3.756153900000000E+000  3.803402700000000E+000  3.851245900000000E+000  3.899690800000000E+000 
 3.948745100000000E+000  3.998416400000000E+000  4.048712500000000E+000  4.099641300000000E+000 
 4.151210700000000E+000  4.203428700000000E+000  4.256303600000000E+000  4.309843500000000E+000 
 4.364056900000000E+000  4.418952200000000E+000  4.474538000000000E+000  4.530823000000000E+000 
 4.587815900000000E+000  4.645525800000000E+000  4.703961500000000E+000  4.763132300000000E+000 
 4.823047400000000E+000  4.883716100000000E+000  4.945147900000000E+000  5.007352400000000E+000 
 5.070339400000000E+000  5.134118600000000E+000  5.198700100000000E+000  5.264093900000000E+000 
 5.330310300000000E+000  5.397359600000000E+000  5.465252200000000E+000  5.533998900000000E+000 
 5.603610200000000E+000  5.674097200000000E+000  5.745470800000000E+000  5.817742100000000E+000 
 5.890922600000000E+000  5.965023500000000E+000  6.040056400000000E+000  6.116033200000000E+000 
 6.192965700000000E+000  6.270865800000000E+000  6.349745800000000E+000  6.429618000000000E+000 
 6.510494900000000E+000  6.592389100000000E+000  6.675313400000000E+000  6.759280700000000E+000 
 6.844304200000000E+000  6.930397200000000E+000  7.017573100000000E+000  7.105845500000000E+000 
 7.195228300000000E+000  7.285735300000000E+000  7.377380800000000E+000  7.470179100000000E+000 
 7.564144600000000E+000  7.659292000000000E+000  7.755636300000000E+000  7.853192400000000E+000 
 7.951975600000000E+000  8.052001400000000E+000  8.153285300000000E+000  8.255843300000000E+000 
 8.359691200000000E+000  8.464845400000000E+000  8.571322300000000E+000  8.679138500000001E+000 
 8.788310800000000E+000  8.898856400000000E+000  9.010792500000001E+000  9.124136500000001E+000 
 9.238906200000001E+000  9.355119600000000E+000  9.472794700000000E+000  9.591950100000000E+000 
 9.712604199999999E+000  9.834775900000000E+000  9.958484400000000E+000  1.008374900000000E+001 
 1.021058900000000E+001  1.033902500000000E+001  1.046907600000000E+001  1.060076300000000E+001 
 1.073410600000000E+001  1.086912700000000E+001  1.100584600000000E+001  1.114428500000000E+001 
 1.128446500000000E+001  1.142640800000000E+001  1.157013700000000E+001  1.171567300000000E+001 
 1.186304100000000E+001  1.201226200000000E+001  1.216336000000000E+001  1.231635800000000E+001 
 1.247128100000000E+001  1.262815300000000E+001  1.278699700000000E+001  1.294784000000000E+001 
 1.311070600000000E+001  1.327562100000000E+001  1.344261000000000E+001  1.361169900000000E+001 
 1.378291600000000E+001  1.395628600000000E+001  1.413183600000000E+001  1.430959500000000E+001 
 1.448959000000000E+001  1.467184900000000E+001  1.485640000000000E+001  1.504327300000000E+001 
 1.523249600000000E+001  1.542410000000000E+001  1.561811300000000E+001  1.581456700000000E+001 
 1.601349200000000E+001  1.621491900000000E+001  1.641888000000000E+001  1.662540600000000E+001 
 1.683453000000000E+001  1.704628500000000E+001  1.726070300000000E+001  1.747781800000000E+001 
 1.769766400000000E+001  1.792027600000000E+001  1.814568700000000E+001  1.837393400000000E+001 
 1.860505200000000E+001  1.883907700000000E+001  1.907604600000000E+001  1.931599500000000E+001 
 1.955896200000000E+001  1.980498600000000E+001  2.005410400000000E+001  2.030635600000000E+001 
 2.056178100000000E+001  2.082041900000000E+001  2.108230900000000E+001  2.134749400000000E+001 
 2.161601500000000E+001  2.188791300000000E+001  2.216323200000000E+001  2.244201300000000E+001 
 2.272430100000000E+001  2.301014000000000E+001  2.329957400000000E+001  2.359264900000000E+001 
 2.388941000000000E+001  2.418990400000000E+001  2.449417800000000E+001  2.480227900000000E+001 
 2.511425500000000E+001  2.543015600000000E+001  2.575003000000000E+001  2.607392800000000E+001 
 2.640190000000000E+001  2.673399700000000E+001  2.707027100000000E+001  2.741077600000000E+001 
 2.775556300000000E+001  2.810468700000000E+001  2.845820300000000E+001  2.881616500000000E+001 
 2.917863000000000E+001  2.954565500000000E+001  2.991729500000000E+001  3.029361100000000E+001 
 3.067466000000000E+001  3.106050200000000E+001  3.145119700000000E+001  3.184680700000000E+001 
 3.224739200000000E+001  3.265301700000000E+001  3.306374300000000E+001  3.347963600000000E+001 
 3.390076000000000E+001  3.432718200000000E+001  3.475896700000000E+001  3.519618300000000E+001 
 3.563889900000000E+001  3.608718300000000E+001  3.654110600000000E+001  3.700073900000000E+001 
 3.746615300000000E+001  3.793742200000000E+001  3.841461800000000E+001  3.889781700000000E+001 
 3.938709300000000E+001  3.988252400000000E+001  4.038418700000000E+001  4.089215900000000E+001 
 4.140652200000000E+001  4.192735400000000E+001  4.245473700000000E+001  4.298875400000000E+001 
 4.352948800000000E+001  4.407702400000000E+001  4.463144700000000E+001  4.519284400000000E+001 
 4.576130200000000E+001  4.633691100000000E+001  4.691975900000000E+001  4.750994000000000E+001 
 4.810754300000000E+001  4.871266400000000E+001  4.932539600000000E+001  4.994583500000000E+001 
 5.057407900000000E+001  5.121022500000000E+001  5.185437200000000E+001  5.250662200000000E+001 
 5.316707600000000E+001  5.383583800000000E+001  5.451301200000000E+001  5.519870300000000E+001 
 5.589302000000000E+001  5.659607000000000E+001  5.730796300000000E+001  5.802881000000000E+001 
 5.875872500000000E+001  5.949782100000000E+001  6.024621400000000E+001  6.100402000000000E+001 
 6.177135900000000E+001  6.254834900000000E+001  6.333511200000000E+001  6.413177200000000E+001 
 6.493845300000000E+001  6.575528000000000E+001  6.658238200000000E+001  6.741988800000000E+001 
 6.826792800000000E+001  6.912663499999999E+001  6.999614300000000E+001  7.087658800000000E+001 
 7.176810800000000E+001  7.267084199999999E+001  7.358493100000000E+001  7.451051800000000E+001 
 7.544774700000001E+001  7.639676500000000E+001  7.735772000000000E+001  7.833076300000000E+001 
 7.931604500000000E+001  8.031372000000000E+001  8.132394400000000E+001  8.234687599999999E+001 
 8.338267399999999E+001  8.443150199999999E+001  8.549352100000000E+001  8.656890000000000E+001 
 8.765780500000000E+001  8.876040600000000E+001  8.987687699999999E+001  9.100739100000000E+001 
 9.215212500000000E+001  9.331125900000001E+001  9.448497200000000E+001  9.567344900000001E+001 
 9.687687500000000E+001  9.809543800000000E+001  9.932932900000000E+001  1.005787400000000E+002 
 1.018438700000000E+002  1.031249100000000E+002  1.044220600000000E+002  1.057355300000000E+002 
 1.070655200000000E+002  1.084122400000000E+002  1.097759000000000E+002  1.111567200000000E+002 
 1.125549000000000E+002  1.139706700000000E+002  1.154042400000000E+002  1.168558500000000E+002 
 1.183257200000000E+002  1.198140800000000E+002
    </PP_R>
    <PP_RAB type="real" size="1074" columns="4">
 0.000000000000000E+000  2.269257400000000E-006  2.297801150000000E-006  2.326703750000000E-006 
 2.355970150000000E-006  2.385605000000000E-006  2.415612000000001E-006  2.445996500000000E-006 
 2.476763500000000E-006  2.507917000000000E-006  2.539462999999999E-006  2.571405500000001E-006 
 2.603749500000002E-006  2.636501000000000E-006  2.669663999999997E-006  2.703244500000000E-006 
 2.737247000000000E-006  2.771677000000000E-006  2.806541000000000E-006  2.841842500000000E-006 
 2.877588500000000E-006  2.913784500000000E-006  2.950435000000004E-006  2.987547000000000E-006 
 3.025125499999999E-006  3.063176999999998E-006  3.101706999999997E-006  3.140721499999997E-006 
 3.180227499999999E-006  3.220229500000004E-006  3.260735000000003E-006  3.301749999999999E-006 
 3.343281000000000E-006  3.385334500000001E-006  3.427915999999999E-006  3.471034999999997E-006 
 3.514695000000002E-006  3.558905000000005E-006  3.603669999999999E-006  3.648994999999998E-006 
 3.694894999999997E-006  3.741375000000003E-006  3.788435000000008E-006  3.836084999999994E-006 
 3.884339999999989E-006  3.933200000000005E-006  3.982670000000010E-006  4.032764999999997E-006 
 4.083490000000002E-006  4.134854999999997E-006  4.186869999999997E-006  4.239530000000008E-006 
 4.292855000000004E-006  4.346855000000001E-006  4.401534999999991E-006  4.456899999999995E-006 
 4.512955000000006E-006  4.569719999999999E-006  4.627205000000002E-006  4.685410000000002E-006 
 4.744339999999991E-006  4.804014999999998E-006  4.864445000000010E-006  4.925635000000008E-006 
 4.987589999999999E-006  5.050324999999990E-006  5.113849999999995E-006  5.178175000000002E-006 
 5.243305000000005E-006  5.309259999999991E-006  5.376045000000007E-006  5.443665000000021E-006 
 5.512139999999980E-006  5.581469999999992E-006  5.651675000000004E-006  5.722770000000010E-006 
 5.794755000000011E-006  5.867639999999994E-006  5.941444999999987E-006  6.016180000000004E-006 