<UPF version="2.0.1">
  <PP_INFO>
    from vwr To fhi To upf
    Author: unknown
    Generation date: unknown
    Pseudopotential type: NC
    Element: Al
    Functional: LDA

    Suggested minimum cutoff for wavefunctions:  30. Ry
    Suggested minimum cutoff for charge density:   0. Ry
    The Pseudo was generated with a Non-Relativistic Calculation
    L component and cutoff radius for Local Potential:  0   0.0000

    Valence configuration: 
    nl pn  l   occ       Rcut    Rcut US       E pseu
    3s  3  0  2.00      0.000      0.000     0.000000
    3p  3  1  1.00      0.000      0.000     0.000000
    3d  3  2  0.00      0.000      0.000     0.000000
    Comment:
    Info: automatically convert from VWR format
  </PP_INFO>
  <!--                               -->
  <!-- END OF HUMAN READABLE SECTION -->
  <!--                               -->
  <PP_HEADER generated="from vwr To fhi To upf"
             author="unknown"
             date="unknown"
             comment="Info: automatically convert from VWR format"
             element="Al"
             pseudo_type="NC"
             relativistic="nonrel"
             is_ultrasoft="F"
             is_paw="F"
             is_coulomb="F"
             has_so="F"
             has_wfc="F"
             has_gipaw="F"
             paw_as_gipaw="F"
             core_correction="F"
             functional="LDA"
             z_valence="3.000000000000000E+000"
             total_psenergy="0.000000000000000E+000"
             wfc_cutoff="3.000000000000000E+001"
             rho_cutoff="0.000000000000000E+000"
             l_max="2"
             l_max_rho="0"
             l_local="0"
             mesh_size="1068"
             number_of_wfc="3"
             number_of_proj="2"/>
  <PP_MESH dx="2.439993131034235E-002" mesh="1068" xmin="-1.037577010936585E+001" rmax="1.197072300000000E+002"
zmesh="1.300000000000000E+001">
    <PP_R type="real" size="1068" columns="4">
 2.398374200000000E-006  4.826916200000000E-006  7.286005500000000E-006  9.776026300000000E-006 
 1.229736800000000E-005  1.485042400000000E-005  1.743559300000000E-005  2.005328000000000E-005 
 2.270389400000000E-005  2.538784800000000E-005  2.810556200000000E-005  3.085746000000000E-005 
 3.364397300000000E-005  3.646553700000000E-005  3.932259100000000E-005  4.221558200000000E-005 
 4.514496300000000E-005  4.811119100000000E-005  5.111472900000000E-005  5.415604800000000E-005 
 5.723562100000000E-005  6.035393100000000E-005  6.351146400000000E-005  6.670871400000001E-005 
 6.994618000000000E-005  7.322436900000001E-005  7.654379300000000E-005  7.990496900000000E-005 
 8.330842400000000E-005  8.675468900000000E-005  9.024430299999999E-005  9.377781100000001E-005 
 9.735576500000000E-005  1.009787200000000E-004  1.046472500000000E-004  1.083619300000000E-004 
 1.121233300000000E-004  1.159320400000000E-004  1.197886600000000E-004  1.236937900000000E-004 
 1.276480400000000E-004  1.316520300000000E-004  1.357063800000000E-004  1.398117300000000E-004 
 1.439687200000000E-004  1.481780000000000E-004  1.524402200000000E-004  1.567560600000000E-004 
 1.611261800000000E-004  1.655512700000000E-004  1.700320300000000E-004  1.745691400000000E-004 
 1.791633200000000E-004  1.838153000000000E-004  1.885257800000000E-004  1.932955200000000E-004 
 1.981252500000000E-004  2.030157300000000E-004  2.079677300000000E-004  2.129820200000000E-004 
 2.180593800000000E-004  2.232006000000000E-004  2.284064900000000E-004  2.336778600000000E-004 
 2.390155400000000E-004  2.444203600000000E-004  2.498931700000000E-004  2.554348100000000E-004 
 2.610461600000000E-004  2.667280900000000E-004  2.724814900000000E-004  2.783072600000000E-004 
 2.842063100000000E-004  2.901795600000000E-004  2.962279400000000E-004  3.023524100000000E-004 
 3.085539000000000E-004  3.148334100000000E-004  3.211919000000000E-004  3.276303700000000E-004 
 3.341498300000000E-004  3.407512900000000E-004  3.474357900000000E-004  3.542043700000000E-004 
 3.610580800000000E-004  3.679980100000000E-004  3.750252300000000E-004  3.821408400000000E-004 
 3.893459500000000E-004  3.966417000000000E-004  4.040292100000000E-004  4.115096400000000E-004 
 4.190841700000000E-004  4.267539800000000E-004  4.345202500000000E-004  4.423842200000000E-004 
 4.503471000000000E-004  4.584101500000000E-004  4.665746100000000E-004  4.748417700000000E-004 
 4.832129200000000E-004  4.916893600000000E-004  5.002724300000000E-004  5.089634600000000E-004 
 5.177638000000000E-004  5.266748400000000E-004  5.356979700000000E-004  5.448346000000000E-004 
 5.540861500000000E-004  5.634540700000000E-004  5.729398200000000E-004  5.825448900000000E-004 
 5.922707800000000E-004  6.021190000000000E-004  6.120911000000000E-004  6.221886299999999E-004 
 6.324131800000000E-004  6.427663300000000E-004  6.532497100000000E-004  6.638649500000000E-004 
 6.746137200000000E-004  6.854976900000000E-004  6.965185600000000E-004  7.076780600000000E-004 
 7.189779300000000E-004  7.304199300000000E-004  7.420058600000000E-004  7.537375200000000E-004 
 7.656167400000000E-004  7.776453900000001E-004  7.898253400000000E-004  8.021584900000000E-004 
 8.146467800000000E-004  8.272921500000000E-004  8.400965800000000E-004  8.530620600000000E-004 
 8.661906400000000E-004  8.794843500000000E-004  8.929452700000000E-004  9.065755200000000E-004 
 9.203772100000000E-004  9.343525000000000E-004  9.485035800000000E-004  9.628326600000000E-004 
 9.773419800000000E-004  9.920338100000000E-004  1.006910400000000E-003  1.021974200000000E-003 
 1.037227400000000E-003  1.052672500000000E-003  1.068311900000000E-003  1.084147900000000E-003 
 1.100183200000000E-003  1.116420200000000E-003  1.132861400000000E-003  1.149509400000000E-003 
 1.166366800000000E-003  1.183436300000000E-003  1.200720500000000E-003  1.218222100000000E-003 
 1.235943800000000E-003  1.253888400000000E-003  1.272058800000000E-003  1.290457700000000E-003 
 1.309088000000000E-003  1.327952700000000E-003  1.347054600000000E-003  1.366396900000000E-003 
 1.385982400000000E-003  1.405814300000000E-003  1.425895600000000E-003  1.446229600000000E-003 
 1.466819300000000E-003  1.487668000000000E-003  1.508778900000000E-003  1.530155400000000E-003 
 1.551800700000000E-003  1.573718300000000E-003  1.595911700000000E-003  1.618384100000000E-003 
 1.641139300000000E-003  1.664180600000000E-003  1.687511800000000E-003  1.711136500000000E-003 
 1.735058300000000E-003  1.759281000000000E-003  1.783808400000000E-003  1.808644400000000E-003 
 1.833792700000000E-003  1.859257300000000E-003  1.885042300000000E-003  1.911151600000000E-003 
 1.937589300000000E-003  1.964359500000000E-003  1.991466500000000E-003  2.018914400000000E-003 
 2.046707600000000E-003  2.074850400000000E-003  2.103347200000000E-003  2.132202400000000E-003 
 2.161420600000000E-003  2.191006300000000E-003  2.220964100000000E-003  2.251298800000000E-003 
 2.282015000000000E-003  2.313117600000000E-003  2.344611400000000E-003  2.376501400000000E-003 
 2.408792400000000E-003  2.441489700000000E-003  2.474598200000000E-003  2.508123200000000E-003 
 2.542069900000000E-003  2.576443600000000E-003  2.611249600000000E-003  2.646493500000000E-003 
 2.682180600000000E-003  2.718316700000000E-003  2.754907300000000E-003  2.791958100000000E-003 
 2.829475000000000E-003  2.867463800000000E-003  2.905930400000000E-003  2.944880900000000E-003 
 2.984321300000000E-003  3.024257800000000E-003  3.064696700000000E-003  3.105644200000000E-003 
 3.147106800000000E-003  3.189090900000000E-003  3.231603100000000E-003  3.274650000000000E-003 
 3.318238400000000E-003  3.362375100000000E-003  3.407066900000000E-003  3.452320900000000E-003 
 3.498144200000000E-003  3.544543800000000E-003  3.591527000000000E-003  3.639101200000000E-003 
 3.687273900000000E-003  3.736052400000000E-003  3.785444600000000E-003  3.835458000000000E-003 
 3.886100500000000E-003  3.937380000000000E-003  3.989304500000000E-003  4.041882100000000E-003 
 4.095121100000000E-003  4.149029800000000E-003  4.203616500000000E-003  4.258889900000000E-003 
 4.314858500000000E-003  4.371531100000000E-003  4.428916600000000E-003  4.487023900000000E-003 
 4.545862100000000E-003  4.605440300000000E-003  4.665768000000000E-003  4.726854500000000E-003 
 4.788709400000000E-003  4.851342300000000E-003  4.914763100000000E-003  4.978981600000000E-003 
 5.044007800000000E-003  5.109852000000000E-003  5.176524400000000E-003  5.244035500000000E-003 
 5.312395700000000E-003  5.381615800000000E-003  5.451706500000000E-003  5.522678900000000E-003 
 5.594544000000000E-003  5.667313100000000E-003  5.740997500000000E-003  5.815608800000000E-003 
 5.891158500000000E-003  5.967658500000000E-003  6.045120800000000E-003  6.123557400000000E-003 
 6.202980700000000E-003  6.283402900000000E-003  6.364836800000000E-003  6.447294900000000E-003 
 6.530790300000000E-003  6.615335900000000E-003  6.700945000000000E-003  6.787630900000000E-003 
 6.875407100000000E-003  6.964287500000000E-003  7.054285800000000E-003  7.145416200000000E-003 
 7.237692800000000E-003  7.331130100000000E-003  7.425742800000000E-003  7.521545500000000E-003 
 7.618553300000000E-003  7.716781300000000E-003  7.816244800000000E-003  7.916959400000000E-003 
 8.018940900000000E-003  8.122205100000000E-003  8.226768200000000E-003  8.332646600000000E-003 
 8.439856799999999E-003  8.548415500000000E-003  8.658339700000000E-003  8.769646600000000E-003 
 8.882353500000001E-003  8.996478200000000E-003  9.112038300000000E-003  9.229052000000000E-003 
 9.347537600000001E-003  9.467513500000000E-003  9.588998499999999E-003  9.712011600000001E-003 
 9.836572100000000E-003  9.962699300000001E-003  1.009041300000000E-002  1.021973300000000E-002 
 1.035068000000000E-002  1.048327400000000E-002  1.061753600000000E-002  1.075348600000000E-002 
 1.089114700000000E-002  1.103053900000000E-002  1.117168400000000E-002  1.131460500000000E-002 
 1.145932400000000E-002  1.160586300000000E-002  1.175424500000000E-002  1.190449300000000E-002 
 1.205663200000000E-002  1.221068400000000E-002  1.236667400000000E-002  1.252462600000000E-002 
 1.268456500000000E-002  1.284651500000000E-002  1.301050300000000E-002  1.317655300000000E-002 
 1.334469200000000E-002  1.351494600000000E-002  1.368734200000000E-002  1.386190600000000E-002 
 1.403866500000000E-002  1.421764800000000E-002  1.439888300000000E-002  1.458239700000000E-002 
 1.476821900000000E-002  1.495637900000000E-002  1.514690500000000E-002  1.533982800000000E-002 
 1.553517800000000E-002  1.573298500000000E-002  1.593328000000000E-002  1.613609400000000E-002 
 1.634145900000000E-002  1.654940800000000E-002  1.675997200000000E-002  1.697318500000000E-002 
 1.718908000000000E-002  1.740769000000000E-002  1.762905100000000E-002  1.785319500000000E-002 
 1.808015900000000E-002  1.830997800000000E-002  1.854268700000000E-002  1.877832400000000E-002 
 1.901692500000000E-002  1.925852600000000E-002  1.950316700000000E-002  1.975088500000000E-002 
 2.000171900000000E-002  2.025570800000000E-002  2.051289200000000E-002  2.077331100000000E-002 
 2.103700500000000E-002  2.130401700000000E-002  2.157438700000000E-002  2.184815700000000E-002 
 2.212537200000000E-002  2.240607300000000E-002  2.269030500000000E-002  2.297811200000000E-002 
 2.326954000000000E-002  2.356463300000000E-002  2.386343800000000E-002  2.416600100000000E-002 
 2.447237100000000E-002  2.478259300000000E-002  2.509671900000000E-002  2.541479500000000E-002 
 2.573687200000000E-002  2.606300000000000E-002  2.639323100000000E-002  2.672761500000000E-002 
 2.706620600000000E-002  2.740905500000000E-002  2.775621700000000E-002  2.810774500000000E-002 
 2.846369600000000E-002  2.882412300000000E-002  2.918908400000000E-002  2.955863600000000E-002 
 2.993283700000000E-002  3.031174400000000E-002  3.069541700000000E-002  3.108391600000000E-002 
 3.147730200000000E-002  3.187563600000000E-002  3.227898000000000E-002  3.268739800000000E-002 
 3.310095400000000E-002  3.351971100000000E-002  3.394373500000000E-002  3.437309300000000E-002 
 3.480785200000000E-002  3.524807900000000E-002  3.569384400000000E-002  3.614521500000000E-002 
 3.660226500000000E-002  3.706506300000000E-002  3.753368200000000E-002  3.800819600000000E-002 
 3.848867900000000E-002  3.897520500000000E-002  3.946785100000000E-002  3.996669400000000E-002 
 4.047181200000000E-002  4.098328300000000E-002  4.150118700000000E-002  4.202560600000000E-002 
 4.255662200000000E-002  4.309431700000000E-002  4.363877500000000E-002  4.419008100000000E-002 
 4.474832300000000E-002  4.531358600000000E-002  4.588595900000000E-002  4.646553100000000E-002 
 4.705239400000000E-002  4.764663900000000E-002  4.824835800000000E-002  4.885764600000000E-002 
 4.947459800000000E-002  5.009931000000000E-002  5.073188000000000E-002  5.137240700000000E-002 
 5.202099100000000E-002  5.267773300000000E-002  5.334273600000000E-002  5.401610300000000E-002 
 5.469794000000000E-002  5.538835400000000E-002  5.608745200000000E-002  5.679534400000000E-002 
 5.751214000000000E-002  5.823795200000000E-002  5.897289300000000E-002  5.971707900000000E-002 
 6.047062600000000E-002  6.123365100000000E-002  6.200627400000000E-002  6.278861500000001E-002 
 6.358079699999999E-002  6.438294400000000E-002  6.519518000000001E-002  6.601763300000001E-002 
 6.685043100000000E-002  6.769370399999999E-002  6.854758399999999E-002  6.941220500000000E-002 
 7.028770099999999E-002  7.117421000000000E-002  7.207187000000000E-002  7.298082100000000E-002 
 7.390120500000000E-002  7.483316600000001E-002  7.577685000000001E-002  7.673240400000000E-002 
 7.769997700000000E-002  7.867972099999999E-002  7.967178799999999E-002  8.067633400000000E-002 
 8.169351599999999E-002  8.272349200000000E-002  8.376642400000001E-002  8.482247399999999E-002 
 8.589180800000000E-002  8.697459200000000E-002  8.807099600000000E-002  8.918119200000001E-002 
 9.030535100000001E-002  9.144365100000000E-002  9.259626899999999E-002  9.376338500000000E-002 
 9.494518200000000E-002  9.614184300000000E-002  9.735355699999999E-002  9.858051299999999E-002 
 9.982290100000001E-002  1.010809200000000E-001  1.023547600000000E-001  1.036446200000000E-001 
 1.049507100000000E-001  1.062732200000000E-001  1.076123700000000E-001  1.089683700000000E-001 
 1.103414200000000E-001  1.117317400000000E-001  1.131395500000000E-001  1.145650700000000E-001 
 1.160085200000000E-001  1.174701300000000E-001  1.189501200000000E-001  1.204487300000000E-001 
 1.219661800000000E-001  1.235027300000000E-001  1.250586000000000E-001  1.266340400000000E-001 
 1.282293000000000E-001  1.298446200000000E-001  1.314802700000000E-001  1.331364800000000E-001 
 1.348135300000000E-001  1.365116700000000E-001  1.382311800000000E-001  1.399723100000000E-001 
 1.417353400000000E-001  1.435205500000000E-001  1.453282200000000E-001  1.471586200000000E-001 
 1.490120500000000E-001  1.508887900000000E-001  1.527891300000000E-001  1.547133800000000E-001 
 1.566618300000000E-001  1.586348000000000E-001  1.606325700000000E-001  1.626554800000000E-001 
 1.647038300000000E-001  1.667779500000000E-001  1.688781600000000E-001  1.710047800000000E-001 
 1.731581600000000E-001  1.753386200000000E-001  1.775465000000000E-001  1.797821600000000E-001 
 1.820459400000000E-001  1.843382000000000E-001  1.866592800000000E-001  1.890095700000000E-001 
 1.913894100000000E-001  1.937991900000000E-001  1.962392900000000E-001  1.987100700000000E-001 
 2.012119300000000E-001  2.037452700000000E-001  2.063104600000000E-001  2.089079300000000E-001 
 2.115380700000000E-001  2.142012900000000E-001  2.168980000000000E-001  2.196286400000000E-001 
 2.223936300000000E-001  2.251934000000000E-001  2.280283800000000E-001  2.308990200000000E-001 
 2.338057700000000E-001  2.367490800000000E-001  2.397294200000000E-001  2.427472400000000E-001 
 2.458030300000000E-001  2.488972500000000E-001  2.520303900000000E-001  2.552029400000000E-001 
 2.584153900000000E-001  2.616682600000000E-001  2.649620400000000E-001  2.682972500000000E-001 
 2.716744100000000E-001  2.750940500000000E-001  2.785567100000000E-001  2.820629200000000E-001 
 2.856132300000000E-001  2.892082000000000E-001  2.928483900000000E-001  2.965343700000000E-001 
 3.002667100000000E-001  3.040460000000000E-001  3.078728200000000E-001  3.117477900000000E-001 
 3.156714900000000E-001  3.196445500000000E-001  3.236675800000000E-001  3.277412100000000E-001 
 3.318660900000000E-001  3.360428500000000E-001  3.402721400000000E-001  3.445546400000000E-001 
 3.488910000000000E-001  3.532819100000000E-001  3.577280500000000E-001  3.622301100000000E-001 
 3.667888000000000E-001  3.714048400000000E-001  3.760789300000000E-001  3.808118200000000E-001 
 3.856042400000000E-001  3.904569500000000E-001  3.953706900000000E-001  4.003462400000000E-001 
 4.053843700000000E-001  4.104858800000000E-001  4.156515500000000E-001  4.208822000000000E-001 
 4.261786500000000E-001  4.315417100000000E-001  4.369722400000000E-001  4.424710700000000E-001 
 4.480390700000000E-001  4.536771100000000E-001  4.593860600000000E-001  4.651668200000000E-001 
 4.710203000000000E-001  4.769474100000000E-001  4.829490600000000E-001  4.890262100000000E-001 
 4.951798000000000E-001  5.014108000000000E-001  5.077201700000000E-001  5.141089000000000E-001 
 5.205779900000000E-001  5.271284500000000E-001  5.337613100000000E-001  5.404776000000000E-001 
 5.472783700000000E-001  5.541646800000000E-001  5.611376200000000E-001  5.681982600000000E-001 
 5.753477100000000E-001  5.825870900000000E-001  5.899175300000000E-001  5.973401800000000E-001 
 6.048561900000000E-001  6.124667499999999E-001  6.201730300000000E-001  6.279762400000000E-001 
 6.358776100000000E-001  6.438783600000000E-001  6.519797600000000E-001  6.601830500000000E-001 
 6.684895300000000E-001  6.769004900000000E-001  6.854172500000000E-001  6.940411300000000E-001 
 7.027735000000001E-001  7.116157000000000E-001  7.205691200000000E-001  7.296351599999999E-001 
 7.388152400000000E-001  7.481107900000000E-001  7.575232600000000E-001  7.670541300000000E-001 
 7.767048800000000E-001  7.864770300000000E-001  7.963720900000000E-001  8.063916100000000E-001 
 8.165371700000000E-001  8.268103400000000E-001  8.372127300000000E-001  8.477459700000000E-001 
 8.584117000000000E-001  8.692115900000000E-001  8.801473200000000E-001  8.912206100000000E-001 
 9.024331900000000E-001  9.137868000000000E-001  9.252832200000000E-001  9.369242500000000E-001 
 9.487117000000000E-001  9.606474200000000E-001  9.727332800000000E-001  9.849711600000000E-001 
 9.973629700000000E-001  1.009910600000000E+000  1.022616200000000E+000  1.035481500000000E+000 
 1.048508600000000E+000  1.061699600000000E+000  1.075056600000000E+000  1.088581500000000E+000 
 1.102276600000000E+000  1.116143900000000E+000  1.130185700000000E+000  1.144404100000000E+000 
 1.158801300000000E+000  1.173379600000000E+000  1.188141300000000E+000  1.203088700000000E+000 
 1.218224100000000E+000  1.233549900000000E+000  1.249068400000000E+000  1.264782200000000E+000 
 1.280693600000000E+000  1.296805100000000E+000  1.313119300000000E+000  1.329638700000000E+000 
 1.346365900000000E+000  1.363303500000000E+000  1.380454100000000E+000  1.397820500000000E+000 
 1.415405300000000E+000  1.433211300000000E+000  1.451241300000000E+000  1.469498100000000E+000 
 1.487984500000000E+000  1.506703400000000E+000  1.525657800000000E+000  1.544850600000000E+000 
 1.564284900000000E+000  1.583963500000000E+000  1.603889700000000E+000  1.624066600000000E+000 
 1.644497200000000E+000  1.665184900000000E+000  1.686132700000000E+000  1.707344000000000E+000 
 1.728822200000000E+000  1.750570500000000E+000  1.772592400000000E+000  1.794891200000000E+000 
 1.817470600000000E+000  1.840333900000000E+000  1.863484900000000E+000  1.886927000000000E+000 
 1.910664100000000E+000  1.934699600000000E+000  1.959037600000000E+000  1.983681600000000E+000 
 2.008635700000000E+000  2.033903600000000E+000  2.059489400000000E+000  2.085396900000000E+000 
 2.111630400000000E+000  2.138193800000000E+000  2.165091400000000E+000  2.192327300000000E+000 
 2.219905800000000E+000  2.247831200000000E+000  2.276107800000000E+000  2.304740100000000E+000 
 2.333732600000000E+000  2.363089700000000E+000  2.392816100000000E+000  2.422916400000000E+000 
 2.453395400000000E+000  2.484257700000000E+000  2.515508200000000E+000  2.547151800000000E+000 
 2.579193400000000E+000  2.611638100000000E+000  2.644490800000000E+000  2.677756800000000E+000 
 2.711441300000000E+000  2.745549400000000E+000  2.780086500000000E+000  2.815058100000000E+000 
 2.850469600000000E+000  2.886326500000000E+000  2.922634400000000E+000  2.959399000000000E+000 
 2.996626100000000E+000  3.034321400000000E+000  3.072490900000000E+000  3.111140400000000E+000 
 3.150276200000000E+000  3.189904200000000E+000  3.230030600000000E+000  3.270661800000000E+000 
 3.311804000000000E+000  3.353463800000000E+000  3.395647600000000E+000  3.438362000000000E+000 
 3.481613600000000E+000  3.525409400000000E+000  3.569755900000000E+000  3.614660300000000E+000 
 3.660129600000000E+000  3.706170700000000E+000  3.752791000000000E+000  3.799997700000000E+000 
 3.847798200000000E+000  3.896199900000000E+000  3.945210500000000E+000  3.994837500000000E+000 
 4.045088800000000E+000  4.095972200000000E+000  4.147495600000000E+000  4.199667000000000E+000 
 4.252494700000000E+000  4.305986900000000E+000  4.360152000000000E+000  4.414998300000000E+000 
 4.470534600000000E+000  4.526769400000000E+000  4.583711500000000E+000  4.641369900000000E+000 
 4.699753600000000E+000  4.758871600000000E+000  4.818733200000000E+000  4.879347800000000E+000 
 4.940724800000000E+000  5.002873900000000E+000  5.065804700000000E+000  5.129527100000000E+000 
 5.194051000000000E+000  5.259386500000000E+000  5.325543900000000E+000  5.392533400000000E+000 
 5.460365500000000E+000  5.529050800000000E+000  5.598600100000000E+000  5.669024200000000E+000 
 5.740334200000000E+000  5.812541100000000E+000  5.885656200000000E+000  5.959691100000000E+000 
 6.034657200000000E+000  6.110566200000000E+000  6.187430100000000E+000  6.265260800000000E+000 
 6.344070400000000E+000  6.423871400000000E+000  6.504676200000000E+000  6.586497300000000E+000 
 6.669347700000000E+000  6.753240100000000E+000  6.838187800000000E+000  6.924204000000000E+000 
 7.011302200000000E+000  7.099495900000000E+000  7.188799000000000E+000  7.279225400000000E+000 
 7.370789100000000E+000  7.463504600000000E+000  7.557386400000000E+000  7.652449000000000E+000 
 7.748707300000000E+000  7.846176500000000E+000  7.944871600000000E+000  8.044808200000000E+000 
 8.146001800000001E+000  8.248468300000001E+000  8.352223700000000E+000  8.457284100000001E+000 
 8.563666100000001E+000  8.671386099999999E+000  8.780461100000000E+000  8.890908100000001E+000 
 9.002744399999999E+000  9.115987400000000E+000  9.230654800000000E+000  9.346764500000001E+000 
 9.464334700000000E+000  9.583383800000000E+000  9.703930300000000E+000  9.825993199999999E+000 
 9.949591300000000E+000  1.007474400000000E+001  1.020147100000000E+001  1.032979200000000E+001 
 1.045972800000000E+001  1.059129700000000E+001  1.072452200000000E+001  1.085942200000000E+001 
 1.099601900000000E+001  1.113433400000000E+001  1.127438900000000E+001  1.141620600000000E+001 
 1.155980700000000E+001  1.170521400000000E+001  1.185245000000000E+001  1.200153700000000E+001 
 1.215250100000000E+001  1.230536300000000E+001  1.246014700000000E+001  1.261687900000000E+001 
 1.277558200000000E+001  1.293628200000000E+001  1.309900300000000E+001  1.326377000000000E+001 
 1.343061000000000E+001  1.359954900000000E+001  1.377061300000000E+001  1.394382800000000E+001 
 1.411922200000000E+001  1.429682200000000E+001  1.447665700000000E+001  1.465875300000000E+001 
 1.484314000000000E+001  1.502984600000000E+001  1.521890100000000E+001  1.541033300000000E+001 
 1.560417400000000E+001  1.580045200000000E+001  1.599920000000000E+001  1.620044800000000E+001 
 1.640422700000000E+001  1.661056900000000E+001  1.681950600000000E+001  1.703107200000000E+001 
 1.724529900000000E+001  1.746222100000000E+001  1.768187100000000E+001  1.790428400000000E+001 
 1.812949400000000E+001  1.835753800000000E+001  1.858844900000000E+001  1.882226600000000E+001 
 1.905902300000000E+001  1.929875800000000E+001  1.954150900000000E+001  1.978731400000000E+001 
 2.003621000000000E+001  2.028823700000000E+001  2.054343400000000E+001  2.080184100000000E+001 
 2.106349800000000E+001  2.132844700000000E+001  2.159672800000000E+001  2.186838400000000E+001 
 2.214345600000000E+001  2.242198900000000E+001  2.270402600000000E+001  2.298960900000000E+001 
 2.327878500000000E+001  2.357159900000000E+001  2.386809600000000E+001  2.416832200000000E+001 
 2.447232400000000E+001  2.478015000000000E+001  2.509184900000000E+001  2.540746800000000E+001 
 2.572705700000000E+001  2.605066600000000E+001  2.637834500000000E+001  2.671014600000000E+001 
 2.704612100000000E+001  2.738632200000000E+001  2.773080200000000E+001  2.807961500000000E+001 
 2.843281500000000E+001  2.879045800000000E+001  2.915260000000000E+001  2.951929700000000E+001 
 2.989060600000000E+001  3.026658600000000E+001  3.064729600000000E+001  3.103279300000000E+001 
 3.142314000000000E+001  3.181839700000000E+001  3.221862600000000E+001  3.262388900000000E+001 
 3.303424900000000E+001  3.344977100000000E+001  3.387052000000000E+001  3.429656100000000E+001 
 3.472796100000000E+001  3.516478700000000E+001  3.560710800000000E+001  3.605499300000000E+001 
 3.650851100000000E+001  3.696773400000000E+001  3.743273300000000E+001  3.790358200000000E+001 
 3.838035200000000E+001  3.886312000000000E+001  3.935196100000000E+001  3.984695000000000E+001 
 4.034816500000000E+001  4.085568500000000E+001  4.136958800000000E+001  4.188995600000000E+001 
 4.241686900000000E+001  4.295041000000000E+001  4.349066200000000E+001  4.403771000000000E+001 
 4.459163900000000E+001  4.515253500000000E+001  4.572048600000000E+001  4.629558100000000E+001 
 4.687791100000000E+001  4.746756500000000E+001  4.806463500000000E+001  4.866921600000000E+001 
 4.928140200000000E+001  4.990128800000000E+001  5.052897200000000E+001  5.116455000000000E+001 
 5.180812400000000E+001  5.245979200000000E+001  5.311965700000000E+001  5.378782300000000E+001 
 5.446439300000000E+001  5.514947300000000E+001  5.584317000000000E+001  5.654559300000000E+001 
 5.725685200000000E+001  5.797705600000000E+001  5.870632000000000E+001  5.944475700000000E+001 
 6.019248300000000E+001  6.094961300000000E+001  6.171626800000000E+001  6.249256500000000E+001 
 6.327862700000000E+001  6.407457700000001E+001  6.488053800000000E+001  6.569663700000000E+001 
 6.652300200000001E+001  6.735975999999999E+001  6.820704400000000E+001  6.906498600000000E+001 
 6.993371900000000E+001  7.081337900000000E+001  7.170410400000000E+001  7.260603300000000E+001 
 7.351930700000000E+001  7.444406800000000E+001  7.538046199999999E+001  7.632863399999999E+001 
 7.728873200000000E+001  7.826090700000000E+001  7.924531000000000E+001  8.024209600000000E+001 
 8.125142000000000E+001  8.227343900000000E+001  8.330831400000000E+001  8.435620600000000E+001 
 8.541727899999999E+001  8.649169800000000E+001  8.757963300000000E+001  8.868125100000000E+001 
 8.979672600000001E+001  9.092623200000000E+001  9.206994600000000E+001  9.322804600000001E+001 
 9.440071300000000E+001  9.558813000000001E+001  9.679048299999999E+001  9.800796000000000E+001 
 9.924075000000001E+001  1.004890500000000E+002  1.017530500000000E+002  1.030329500000000E+002 
 1.043289400000000E+002  1.056412400000000E+002  1.069700500000000E+002  1.083155700000000E+002 
 1.096780100000000E+002  1.110575900000000E+002  1.124545300000000E+002  1.138690300000000E+002 
 1.153013300000000E+002  1.167516500000000E+002  1.182202100000000E+002  1.197072300000000E+002
    </PP_R>
    <PP_RAB type="real" size="1068" columns="4">
 0.000000000000000E+000  2.443815650000000E-006  2.474555050000000E-006  2.505681250000000E-006 
 2.537198850000000E-006  2.569112500000001E-006  2.601427999999999E-006  2.634150500000001E-006 
 2.667284000000000E-006  2.700833999999999E-006  2.734805999999999E-006  2.769205499999999E-006 
 2.804038500000001E-006  2.839309000000000E-006  2.875022500000000E-006  2.911186000000002E-006 
 2.947804500000001E-006  2.984882999999999E-006  3.022428499999998E-006  3.060446000000001E-006 
 3.098941500000002E-006  3.137921499999998E-006  3.177391500000001E-006  3.217357999999999E-006 
 3.257827500000000E-006  3.298806500000004E-006  3.340299999999999E-006  3.382315499999995E-006 
 3.424859999999999E-006  3.467939499999999E-006  3.511561000000002E-006  3.555731000000002E-006 
 3.600454499999999E-006  3.645742500000004E-006  3.691604999999997E-006  3.738040000000000E-006 
 3.785055000000002E-006  3.832664999999999E-006  3.880875000000004E-006  3.929690000000003E-006 
 3.979119999999992E-006  4.029169999999997E-006  4.079850000000005E-006  4.131170000000003E-006 
 4.183135000000000E-006  4.235750000000001E-006  4.289030000000001E-006  4.342979999999994E-006 
 4.397605000000000E-006  4.452924999999994E-006  4.508934999999996E-006  4.565645000000006E-006 
 4.623080000000005E-006  4.681229999999994E-006  4.740109999999993E-006  4.799735000000010E-006 
 4.860105000000005E-006  4.921239999999992E-006  4.983144999999993E-006  5.045825000000000E-006 
 5.109290000000001E-006  5.173555000000004E-006  5.238630000000010E-006  5.304525000000005E-006 
 5.371249999999990E-006  5.438815000000007E-006  5.507224999999995E-006  5.576494999999976E-006 
 5.646640000000011E-006  5.717664999999999E-006  5.789584999999988E-006  5.862410000000021E-006 
 5.936150000000002E-006  6.010815000000001E-006  6.086425000000019E-006  6.162980000000000E-006 
 6.240499999999975E-006  6.318999999999992E-006  6.398480000000022E-006  6.478964999999994E-006 
 6.560459999999996E-006  6.642979999999996E-006  6.726539999999987E-006  6.811145000000003E-006 